% Model:              bla (1).mph
% Version:            COMSOL 9.9.0.000
% Date:               bla
% Dimension:          bla
% Nodes:              bla
% Expressions:        bla
% Description:        bla
0.01           0.0026356686485835617     0.001118111736007475
0.015849   0.0025051017867690544     7.619724689444925E-4
0.02512     0.002429198091301589      5.228502889348092E-4

